DF-ISE text

Info {
  version   = 1.0
  type      = xyplot
  datasets  = [
    "time"
    "top_schottky OuterVoltage" "top_schottky InnerVoltage" "top_schottky QuasiFermiPotential" "top_schottky DisplacementCurrent" "top_schottky eCurrent"
    "top_schottky hCurrent" "top_schottky TotalCurrent" "top_schottky Charge" "bot_ohmic OuterVoltage" "bot_ohmic InnerVoltage"
    "bot_ohmic QuasiFermiPotential" "bot_ohmic DisplacementCurrent" "bot_ohmic eCurrent" "bot_ohmic hCurrent" "bot_ohmic TotalCurrent"
    "bot_ohmic Charge" "MaxSemiconductor ElectricField" "MaxSemiconductor X_ElectricField" "MaxSemiconductor Y_ElectricField" ]
  functions = [
    Time
    OuterVoltage InnerVoltage QuasiFermiPotential DisplacementCurrent eCurrent
    hCurrent TotalCurrent Charge OuterVoltage InnerVoltage
    QuasiFermiPotential DisplacementCurrent eCurrent hCurrent TotalCurrent
    Charge ElectricField X_ElectricField Y_ElectricField ]
}

Data {
      1.00000000000000E-02
     -1.00000000000000E-02  -5.83825805470562E-06   0.00000000000000E+00   1.69681727179296E-21   4.60871752277623E-14
     -2.43469092597416E-13  -1.97381915672837E-13  -6.19232055388945E-07   0.00000000000000E+00   0.00000000000000E+00
      0.00000000000000E+00   1.06453668449899E-27  -5.07199151236645E-09  -1.36231689703558E-12  -5.07335382926348E-09
      2.76135504088442E-06   1.60346438907466E+05  -2.34375000000000E-02   1.43679687500000E+01
      2.40000000000000E-02
     -2.40000000000000E-02  -5.63252165361561E-06   0.00000000000000E+00   6.72690176034049E-22   4.60871752432357E-14
     -4.23842017426538E-13  -3.77754841510612E-13  -6.19232029327159E-07   0.00000000000000E+00   0.00000000000000E+00
      0.00000000000000E+00   0.00000000000000E+00  -5.07199151236645E-09  -1.36231689844836E-12  -5.07335382926490E-09
      2.76135487903555E-06   1.60346427749734E+05  -2.34375000000000E-02   1.43679687500000E+01
      4.36000000000000E-02
     -4.36000000000000E-02  -5.40514407396175E-06   0.00000000000000E+00  -6.44621263147870E-23   4.60871752529942E-14
     -9.98277821750075E-13  -9.52190646561542E-13  -6.19232000523954E-07   0.00000000000000E+00   0.00000000000000E+00
      0.00000000000000E+00  -2.66134171124749E-28  -4.34741746503837E-09  -1.36231689844836E-12  -4.34877978193682E-09
      2.76135466012823E-06   1.60346412127154E+05  -2.34375000000000E-02   1.43679687500000E+01
      7.10400000000000E-02
     -7.10400000000000E-02  -5.20569497536770E-06   0.00000000000000E+00   1.01985467130599E-22   4.60871752615534E-14
     -1.32611534104298E-12  -1.28002816567944E-12  -6.19231975258608E-07   0.00000000000000E+00   0.00000000000000E+00
      0.00000000000000E+00   0.00000000000000E+00  -5.07199151236645E-09  -1.36231689844836E-12  -5.07335382926490E-09
      2.76135436871250E-06   1.60346390255366E+05  -2.34375000000000E-02   1.43679687500000E+01
      1.09456000000000E-01
     -1.09456000000000E-01  -5.15946929893797E-06   0.00000000000000E+00  -2.01554152310190E-22   4.60871752635386E-14
     -2.11435285974590E-12  -2.06826568468391E-12  -6.19231969402940E-07   0.00000000000000E+00   0.00000000000000E+00
      0.00000000000000E+00   0.00000000000000E+00  -5.07199151236645E-09  -1.36231689844836E-12  -5.07335382926490E-09
      2.76135399024638E-06   1.60346359634867E+05  -2.34375000000000E-02   1.43679687500000E+01
      1.63238400000000E-01
     -1.63238400000000E-01  -5.55143542774846E-06   0.00000000000000E+00  -5.04517497317853E-22   4.60871752467258E-14
     -3.30792063616474E-12  -3.26183346142254E-12  -6.19232019055510E-07   0.00000000000000E+00   0.00000000000000E+00
      0.00000000000000E+00  -2.66134171124749E-28  -4.34741746503837E-09  -1.36231689844836E-12  -4.34877978193682E-09
      2.76135351824434E-06   1.60346316766175E+05  -2.34375000000000E-02   1.43679687500000E+01
      2.38533760000000E-01
     -2.38533760000000E-01  -6.99527431708368E-06   0.00000000000000E+00  -9.28280139952440E-22   4.60871751847895E-14
     -4.85288826770039E-12  -4.80680109344388E-12  -6.19232201954724E-07   0.00000000000000E+00   0.00000000000000E+00
      0.00000000000000E+00   0.00000000000000E+00  -5.07199151236645E-09  -1.36231689844836E-12  -5.07335382926490E-09
      2.76135297082725E-06   1.60346256750019E+05  -2.34375000000000E-02   1.43679687500000E+01
      3.43947264000000E-01
     -3.43947264000000E-01  -1.07709905051384E-05   0.00000000000000E+00  -1.53180252838391E-21   4.60871750228208E-14
     -6.93533662365587E-12  -6.88924945016485E-12  -6.19232680245736E-07   0.00000000000000E+00   0.00000000000000E+00
      0.00000000000000E+00   0.00000000000000E+00  -5.07199151236645E-09  -1.36231689844836E-12  -5.07335382926490E-09
      2.76135242667577E-06   1.60346172727427E+05  -2.34375000000000E-02   1.43679687500000E+01
      4.91526169600000E-01
     -4.91526169600000E-01  -1.94954323993420E-05   0.00000000000000E+00  -2.31390132301003E-21   4.60871746485638E-14
     -9.80891160344423E-12  -9.76282443110957E-12  -6.19233785418021E-07   0.00000000000000E+00   0.00000000000000E+00
      0.00000000000000E+00   0.00000000000000E+00  -5.07199151236645E-09  -1.36231689844836E-12  -5.07335382926490E-09
      2.76135210042918E-06   1.60346055095849E+05  -2.34375000000000E-02   1.43679687500000E+01
      6.98136637440000E-01
     -6.98136637440000E-01  -3.84488047505435E-05   0.00000000000000E+00  -3.44191755048037E-21   4.60871738355142E-14
     -1.38741372851677E-11  -1.38280501147741E-11  -6.19236186337572E-07   0.00000000000000E+00   0.00000000000000E+00
      0.00000000000000E+00  -2.66134171124749E-28  -4.34741746503837E-09  -1.36231689844836E-12  -4.34877978193682E-09
      2.76135249736353E-06   1.60345890411739E+05  -2.34375000000000E-02   1.43679687500000E+01
      9.87391292416000E-01
     -9.87391292416000E-01  -7.81918557783053E-05   0.00000000000000E+00  -5.04217314294334E-21   4.60871721306610E-14
     -1.98007059763077E-11  -1.97546188092192E-11  -6.19241220758574E-07   0.00000000000000E+00   0.00000000000000E+00
      0.00000000000000E+00   0.00000000000000E+00  -5.07199151236645E-09  -1.36231689844836E-12  -5.07335382926490E-09
      2.76135472620768E-06   1.60345659854178E+05  -2.34375000000000E-02   1.43679687500000E+01
      1.39234780938240E+00
     -1.39234780938240E+00  -1.59719438822609E-04   0.00000000000000E+00  -7.26685720268666E-21   4.60871686334591E-14
     -2.78727764623463E-11  -2.78266893009797E-11  -6.19251548074387E-07   0.00000000000000E+00   0.00000000000000E+00
      0.00000000000000E+00   0.00000000000000E+00  -5.07199151236645E-09  -1.36231689844836E-12  -5.07335382926490E-09
      2.76136112572065E-06   1.60345337073974E+05  -2.34375000000000E-02   1.43679687500000E+01
      1.95928693313536E+00
     -1.95928693313536E+00  -3.24595492048165E-04   0.00000000000000E+00  -1.03752692291383E-20   4.60871615612692E-14
     -3.92724902546121E-11  -3.92264031034261E-11  -6.19272432826309E-07   0.00000000000000E+00   0.00000000000000E+00
      0.00000000000000E+00   0.00000000000000E+00  -5.07199151236645E-09  -1.36231689844836E-12  -5.07335382926490E-09
      2.76137651155799E-06   1.60344885182435E+05  -2.34375000000000E-02   1.43679687500000E+01
      2.75300170638950E+00
     -2.75300170638950E+00  -6.54866056279215E-04   0.00000000000000E+00  -1.47207724213160E-20   4.60871473959509E-14
     -5.50752357023965E-11  -5.50291485697213E-11  -6.19314265842780E-07   0.00000000000000E+00   0.00000000000000E+00
      0.00000000000000E+00   0.00000000000000E+00  -5.07199151236645E-09  -1.36231689844836E-12  -5.07335382926490E-09
      2.76141064611249E-06   1.60344252535743E+05  -2.34375000000000E-02   1.43679687500000E+01
      3.86420238894530E+00
     -3.86420238894530E+00  -1.31216510847692E-03   0.00000000000000E+00  -2.08163335785331E-20   4.60871192095327E-14
     -7.71791372357500E-11  -7.71330501373568E-11  -6.19397512640744E-07   0.00000000000000E+00   0.00000000000000E+00
      0.00000000000000E+00   5.32268342249497E-28  -5.07199151236645E-09  -1.36231689844836E-12  -5.07335382926490E-09
      2.76148311509336E-06   1.60343366833616E+05  -2.34375000000000E-02   1.43679687500000E+01
      5.41988334452342E+00
     -5.41988334452342E+00  -2.61450625302128E-03   0.00000000000000E+00  -2.93429512057422E-20   4.60870633826411E-14
     -1.08467229305932E-10  -1.08421142271892E-10  -6.19562420067301E-07   0.00000000000000E+00   0.00000000000000E+00
      0.00000000000000E+00   0.00000000000000E+00  -5.07199151236645E-09  -1.36231689844836E-12  -5.07335382926490E-09
      2.76163293358092E-06   1.60342126859834E+05  -2.34375000000000E-02   1.43679687500000E+01
      7.59783668233279E+00
     -7.59783668233279E+00  -5.18716168978465E-03   0.00000000000000E+00  -4.12679243956380E-20   4.60869531814292E-14
     -1.51998076326056E-10  -1.51951989414143E-10  -6.19888046816755E-07   0.00000000000000E+00   0.00000000000000E+00
      0.00000000000000E+00   0.00000000000000E+00  -5.07199151236645E-09  -1.36231689844836E-12  -5.07335382926490E-09
      2.76193743579545E-06   1.60340390918575E+05  -2.34375000000000E-02   1.43679687500000E+01
      1.06469713552659E+01
     -1.06469713552659E+01  -1.02596032758674E-02   0.00000000000000E+00  -5.79549678046994E-20   4.60867362122586E-14
     -2.12603665751552E-10  -2.12557579073295E-10  -6.20529556040070E-07   0.00000000000000E+00   0.00000000000000E+00
      0.00000000000000E+00   0.00000000000000E+00  -5.07199151236645E-09  -1.36231689844836E-12  -5.07335382926490E-09
      2.76254937095773E-06   1.60337960672702E+05  -2.34375000000000E-02   1.43679687500000E+01
      1.49157598973723E+01
     -1.49157598973723E+01  -2.02522182412750E-02   0.00000000000000E+00  -8.12812645474731E-20   4.60863100122296E-14
     -2.97842127789639E-10  -2.97796041560908E-10  -6.21791257844653E-07   0.00000000000000E+00   0.00000000000000E+00
      0.00000000000000E+00   0.00000000000000E+00  -5.07199151236645E-09  -1.36231689844836E-12  -5.07335382926490E-09
      2.76376967026744E-06   1.60334558267501E+05  -2.34375000000000E-02   1.43679687500000E+01
      2.08920638563212E+01
     -2.08920638563212E+01  -3.99461115656726E-02   0.00000000000000E+00  -1.13853830042504E-19   4.60854749129121E-14
     -4.17153632548260E-10  -4.17107547187201E-10  -6.24269585193438E-07   0.00000000000000E+00   0.00000000000000E+00
      0.00000000000000E+00   5.32268342249497E-28  -5.06986873683717E-09  -1.36231689844836E-12  -5.07123105373561E-09
      2.76619003542336E-06   1.60329794983164E+05  -2.34375000000000E-02   1.43679687500000E+01
      2.92588893988497E+01
     -2.92588893988497E+01  -7.88675152074555E-02   0.00000000000000E+00  -1.59231383629687E-19   4.60838444928184E-14
     -5.83732275891183E-10  -5.83686192205922E-10  -6.29132734370162E-07   0.00000000000000E+00   0.00000000000000E+00
      0.00000000000000E+00   0.00000000000000E+00  -5.03661192021176E-09  -1.36231689844836E-12  -5.03797423711020E-09
      2.77097204025016E-06   1.60323126550964E+05  -2.34375000000000E-02   1.43679687500000E+01
      4.09724451583895E+01
     -4.09724451583895E+01  -1.56458754056585E-01   0.00000000000000E+00  -2.22083174857106E-19   4.60806824783997E-14
     -8.16224975192971E-10  -8.16178894732576E-10  -6.38666906148768E-07   0.00000000000000E+00   0.00000000000000E+00
      0.00000000000000E+00   5.32268342249497E-28  -5.11369520661879E-09  -1.36231689844836E-12  -5.11505752351724E-09
      2.78039261760060E-06   1.60313791081783E+05  -2.34375000000000E-02   1.43679687500000E+01
      5.73714232217453E+01
     -5.73714232217453E+01  -3.15738166841320E-01   0.00000000000000E+00  -3.07523567996732E-19   4.60746479240786E-14
     -1.14099444007039E-09  -1.14094836572999E-09  -6.57340403931132E-07   0.00000000000000E+00   0.00000000000000E+00
      0.00000000000000E+00   5.32268342249497E-28  -5.08189779816976E-09  -1.36231689844836E-12  -5.08326011506821E-09
      2.79890709573308E-06   1.61741867101968E+05  -1.63574218750000E-02   4.54082031250000E+00
      8.03299925104434E+01
     -8.03299925104434E+01  -6.61581369511820E-01   0.00000000000000E+00  -4.20704780215766E-19   4.60634655266610E-14
     -1.59317504044481E-09  -1.59312897739999E-09  -6.93864338934317E-07   0.00000000000000E+00   0.00000000000000E+00
      0.00000000000000E+00   5.32268342249497E-28  -5.07199151236645E-09  -1.36231689844836E-12  -5.07335382926490E-09
      2.83520844050654E-06   1.73032854070803E+05  -2.34375000000000E-02   4.54082031250000E+00
      1.12471989514621E+02
     -1.12471989514621E+02  -1.37917105368579E+00   0.00000000000000E+00  -5.86207490039213E-19   4.60426036301658E-14
     -2.22215850876255E-09  -2.22211246674513E-09  -7.65194528595594E-07   0.00000000000000E+00   0.00000000000000E+00
      0.00000000000000E+00   5.32268342249497E-28  -5.07199151236645E-09  -1.36231689844836E-12  -5.07335382926490E-09
      2.90622709642376E-06   1.96446252741582E+05  -3.75976562500000E-02   4.54082031250000E+00
      1.57470785320469E+02
     -1.57470785320469E+02  -2.82538147491849E+00   0.00000000000000E+00  -8.52121526554443E-19   4.60030672390624E-14
     -3.09314306886314E-09  -3.09309706664802E-09  -9.04244921654395E-07   0.00000000000000E+00   0.00000000000000E+00
      0.00000000000000E+00   9.31469598936620E-26  -4.70992561115337E-09  -1.36231689844836E-12  -4.71128792805182E-09
      3.04484154869621E-06   2.39963295251762E+05  -3.75976562500000E-02   4.54082031250000E+00
      2.20469099448657E+02
     -2.20469099448657E+02  -5.92895422649213E+00   0.00000000000000E+00  -1.36723524070510E-18   4.59254207511884E-14
     -4.29018683334232E-09  -4.29014090928881E-09  -1.17434739137960E-06   0.00000000000000E+00   0.00000000000000E+00
      0.00000000000000E+00   2.32867399734155E-25  -2.93457767683096E-09  -1.36231689844836E-12  -2.93593999372941E-09
      3.31433425303875E-06   3.25049705683984E+05  -3.75976562500000E-02   4.54082031250000E+00
      2.47690593207750E+02
     -2.47690593207750E+02  -7.85316290072420E+00   0.00000000000000E+00  -1.57948531003449E-18   4.58918221801429E-14
     -4.79778848013998E-09  -4.79774258989728E-09  -1.30482516880324E-06   0.00000000000000E+00   0.00000000000000E+00
      0.00000000000000E+00   1.77777626311332E-25  -2.31822095700604E-09  -1.36231689844836E-12  -2.31958327390449E-09
      3.44454869944005E-06   3.71702864912351E+05  -3.75976562500000E-02   4.54082031250000E+00
      2.68862866131489E+02
     -2.68862866131489E+02  -9.53094673274309E+00   0.00000000000000E+00  -1.68702857569311E-18   4.58657034381126E-14
     -5.18543975766016E-09  -5.18539389364375E-09  -1.41455966658746E-06   0.00000000000000E+00   0.00000000000000E+00
      0.00000000000000E+00   1.96273951204502E-25  -1.82609083013429E-09  -1.36231689844836E-12  -1.82745314703273E-09
      3.55407849577445E-06   4.09501488796037E+05  -3.75976562500000E-02   4.54082031250000E+00
      2.98504048224724E+02
     -2.98504048224724E+02  -1.21695283706214E+01   0.00000000000000E+00  -1.84152059948847E-18   4.58285499496858E-14
     -5.72503933402682E-09  -5.72499350731839E-09  -1.58418940120985E-06   0.00000000000000E+00   0.00000000000000E+00
      0.00000000000000E+00   4.29740152823688E-25  -9.55045271285786E-10  -1.36231689844836E-12  -9.56407588184234E-10
      3.72342183411527E-06   4.68153818638413E+05  -6.59179687500000E-02   4.54082031250000E+00
      3.21558300963907E+02
     -3.21558300963907E+02  -1.44267141146819E+01   0.00000000000000E+00  -2.02702491941627E-18   4.57989171376089E-14
     -6.14174865400457E-09  -6.14170285711445E-09  -1.72570868726662E-06   0.00000000000000E+00   0.00000000000000E+00
      0.00000000000000E+00   2.33133533905280E-25  -5.17443940822446E-10  -1.36231689844836E-12  -5.18806257720894E-10
      3.86471850599229E-06   5.17894705717887E+05  -6.59179687500000E-02   4.54082031250000E+00
      3.53834254798763E+02
     -3.53834254798763E+02  -1.82000659137344E+01   0.00000000000000E+00  -2.38688416571059E-18   4.57541721576232E-14
     -6.71493708912292E-09  -6.71489133733765E-09  -1.94222226107623E-06   0.00000000000000E+00   0.00000000000000E+00
      0.00000000000000E+00   1.21278173450833E-25  -4.12346304203011E-11  -1.36231689844836E-12  -4.25969473187493E-11
      4.08092070576351E-06   5.97906015342566E+05  -6.59179687500000E-02   4.54082031250000E+00
      3.78937774448096E+02
     -3.78937774448096E+02  -2.16488532876659E+01   0.00000000000000E+00  -2.86870198540831E-18   4.57155218912265E-14
     -7.14274027652808E-09  -7.14269456387489E-09  -2.12148704619940E-06   0.00000000000000E+00   0.00000000000000E+00
      0.00000000000000E+00   2.57351743477632E-25   4.56954251607948E-10  -1.36231689844836E-12   4.55591934709500E-10
      4.25994360585731E-06   6.66573029430835E+05  -6.59179687500000E-02   4.54082031250000E+00
      3.98462734175354E+02
     -3.98462734175354E+02  -2.45324989732269E+01   0.00000000000000E+00  -3.36729409287689E-18   4.56819156580167E-14
     -7.48080749222944E-09  -7.48076181368107E-09  -2.26741003693555E-06   0.00000000000000E+00   0.00000000000000E+00
      0.00000000000000E+00   2.32867399734155E-28   3.66736291613485E-10  -1.36231689844836E-12   3.65373974715037E-10
      4.40567860698069E-06   7.21164280622492E+05  -6.59179687500000E-02   4.54082031250000E+00
      4.25797677793516E+02
     -4.25797677793516E+02  -2.88772809059793E+01   0.00000000000000E+00  -4.01903459840602E-18   4.56289304386063E-14
     -7.94319742149830E-09  -7.94315179658690E-09  -2.48426465399928E-06   0.00000000000000E+00   0.00000000000000E+00
      0.00000000000000E+00   2.70059650148839E-25   9.25733847657609E-10  -1.36231689844836E-12   9.24371530759161E-10
      4.62227030399391E-06   8.03897212219881E+05  -8.00781250000000E-02   4.54082031250000E+00
      4.47058189496531E+02
     -4.47058189496531E+02  -3.25756594450198E+01   0.00000000000000E+00  -4.47063559381519E-18   4.55864341808292E-14
     -8.29380834144081E-09  -8.29376275947727E-09  -2.66038970598871E-06   0.00000000000000E+00   0.00000000000000E+00
      0.00000000000000E+00   5.64869778212279E-25   1.48972877109358E-09  -1.36231689844836E-12   1.48836645419513E-09
      4.79819116523398E-06   8.72184665462878E+05  -8.00781250000000E-02   4.54082031250000E+00
      4.76822905880752E+02
     -4.76822905880752E+02  -3.84752290046871E+01   0.00000000000000E+00  -4.66786734007857E-18   4.55305340965052E-14
     -8.76183870619631E-09  -8.76179318033008E-09  -2.92116079550776E-06   0.00000000000000E+00   0.00000000000000E+00
      0.00000000000000E+00   1.59680502674849E-27   1.50060799568115E-09  -1.36231689844836E-12   1.49924567878270E-09
      5.05867690610822E-06   9.73580481981054E+05  -8.00781250000000E-02   4.54082031250000E+00
      4.99973240846257E+02
     -4.99973240846257E+02  -4.33990455061504E+01   0.00000000000000E+00  -4.82832505566409E-18   4.54903471864095E-14
     -9.12689491795870E-09  -9.12684943243984E-09  -3.13241611413497E-06   0.00000000000000E+00   0.00000000000000E+00
      0.00000000000000E+00   2.95808131205158E-25   2.05151247001989E-09  -1.36231689844836E-12   2.05015015312144E-09
      5.26971060312304E-06   1.05571120325106E+06  -8.00781250000000E-02   4.54082031250000E+00
      5.17979056930538E+02
     -5.17979056930538E+02  -4.74043472901430E+01   0.00000000000000E+00  -5.15143143426984E-18   4.54597113687020E-14
     -9.41474664798551E-09  -9.41470119342557E-09  -3.30176372712885E-06   0.00000000000000E+00   0.00000000000000E+00
      0.00000000000000E+00   1.06453668449899E-27   2.11908749103535E-09  -1.36231689844836E-12   2.11772517413690E-09
      5.43888611194863E-06   1.12136783226483E+06  -8.00781250000000E-02   4.54082031250000E+00
      5.43187199448533E+02
     -5.43187199448533E+02  -5.34236347802848E+01   0.00000000000000E+00  -5.77266091482962E-18   4.54157998001564E-14
     -9.79098091169206E-09  -9.79093550166492E-09  -3.54851487812973E-06   0.00000000000000E+00   0.00000000000000E+00
      0.00000000000000E+00   3.08449504333584E-25   2.67737745523638E-09  -1.36231689844836E-12   2.67601513833793E-09
      5.68539684732130E-06   1.21678942754877E+06  -8.00781250000000E-02   4.54082031250000E+00
      5.78478598973725E+02
     -5.78478598973725E+02  -6.28108596265115E+01   0.00000000000000E+00  -7.32568248240787E-18   4.53505115519045E-14
     -1.03156283091452E-08  -1.03155829659593E-08  -3.91223406626567E-06   0.00000000000000E+00   0.00000000000000E+00
      0.00000000000000E+00   2.02261970054809E-26   2.82256645654119E-09  -1.36231689844836E-12   2.82120413964274E-09
      6.04878059890449E-06   1.35811128349117E+06  -8.00781250000000E-02   4.54082031250000E+00
      5.93727969138931E+02
     -5.93727969138931E+02  -6.70614146495391E+01   0.00000000000000E+00  -8.96376496913104E-18   4.53212663869138E-14
     -1.05371491761316E-08  -1.05371038638290E-08  -4.07274769141370E-06   0.00000000000000E+00   0.00000000000000E+00
      0.00000000000000E+00   4.91283679896286E-25   3.57756695312231E-09  -1.36231689844836E-12   3.57620463622386E-09
      6.20914957097081E-06   1.42027006730583E+06  -8.00781250000000E-02   4.54082031250000E+00
      6.15077087370220E+02
     -6.15077087370220E+02  -7.32683458679750E+01   0.00000000000000E+00  -1.45034750107115E-17   4.52766665932392E-14
     -1.08259508735517E-08  -1.08259056113886E-08  -4.30392663393862E-06   0.00000000000000E+00   0.00000000000000E+00
      0.00000000000000E+00   6.33399327276901E-26   3.61396370855145E-09  -1.36231689844836E-12   3.61260139165300E-09
      6.44012645410830E-06   1.50949894662939E+06  -8.00781250000000E-02   4.54082031250000E+00
      6.31681957105667E+02
     -6.31681957105667E+02  -7.83263232658308E+01   0.00000000000000E+00  -3.89257075576060E-17   4.52366469238286E-14
     -1.10673239412749E-08  -1.10672787435537E-08  -4.48756263135396E-06   0.00000000000000E+00   0.00000000000000E+00
      0.00000000000000E+00   7.34530312304306E-26   3.86091326179119E-09  -1.36231689844836E-12   3.85955094489274E-09
      6.62360566229754E-06   1.58067259240767E+06  -8.00781250000000E-02   4.54082031250000E+00
      6.54928774735293E+02
     -6.54928774735293E+02  -8.58339097396294E+01   0.00000000000000E+00  -8.29274268979709E-17   4.51785146341572E-14
     -1.13790190591857E-08  -1.13789739635985E-08  -4.75196234613866E-06   0.00000000000000E+00   0.00000000000000E+00
      0.00000000000000E+00   8.35661297331710E-26   3.97448175260775E-09  -1.36231689844836E-12   3.97311943570930E-09
      6.88778664643481E-06   1.68452883809244E+06  -8.00781250000000E-02   4.54082031250000E+00
      6.64973695933280E+02
     -6.64973695933280E+02  -8.91957682791077E+01   0.00000000000000E+00  -2.30541466307732E-16   4.51514554615757E-14
     -1.15143480324764E-08  -1.15143031115624E-08  -4.86755012883998E-06   0.00000000000000E+00   0.00000000000000E+00
      0.00000000000000E+00   6.62141817758374E-25   4.64841875866443E-09  -1.36231689844836E-12   4.64705644176598E-09
      7.00328009484538E-06   1.73073847465945E+06  -8.00781250000000E-02   4.54082031250000E+00
      6.79036585610461E+02
     -6.79036585610461E+02  -9.40181324860050E+01   0.00000000000000E+00  -2.33236786162751E-16   4.51133734430494E-14
     -1.16923077355823E-08  -1.16922628554457E-08  -5.03196934105813E-06   0.00000000000000E+00   0.00000000000000E+00
      0.00000000000000E+00  -1.06453668449899E-27   4.62688143194026E-09  -1.36231689844836E-12   4.62551911504181E-09
      7.16756748761912E-06   1.79663017074200E+06  -8.00781250000000E-02   4.54082031250000E+00
      6.98724631158514E+02
     -6.98724631158514E+02  -1.01000848818891E+02   0.00000000000000E+00  -2.35888798138235E-16   4.50580477057629E-14
     -1.19551178354415E-08  -1.19550730132826E-08  -5.26715356338798E-06   0.00000000000000E+00   0.00000000000000E+00
      0.00000000000000E+00   9.60744357760342E-26   4.86357090345515E-09  -1.36231689844836E-12   4.86220858655670E-09
      7.40256765918742E-06   1.89089721332981E+06  -8.00781250000000E-02   4.54082031250000E+00
      7.14037555473667E+02
     -7.14037555473667E+02  -1.06584290088465E+02   0.00000000000000E+00  -2.38091765313071E-16   4.50130374874307E-14
     -1.21424550156868E-08  -1.21424102407410E-08  -5.45305086504617E-06   0.00000000000000E+00   0.00000000000000E+00
      0.00000000000000E+00   4.65202531126060E-25   5.24956225386283E-09  -1.36231689844836E-12   5.24819993696438E-09
      7.58832225642243E-06   1.97113861962936E+06  -6.59179687500000E-02   4.47304687500000E+00
      7.35475649514881E+02
     -7.35475649514881E+02  -1.14732771356242E+02   0.00000000000000E+00  -2.42049174069638E-16   4.49503952558424E-14
     -1.24165646377098E-08  -1.24165199293637E-08  -5.71899672877823E-06   0.00000000000000E+00   0.00000000000000E+00
      0.00000000000000E+00   2.19294557006793E-25   5.75124487061635E-09  -1.36231689844836E-12   5.74988255371790E-09
      7.85406932973314E-06   2.10322643082350E+06  -6.59179687500000E-02   4.47304687500000E+00
      7.52149722658047E+02
     -7.52149722658047E+02  -1.21305266770209E+02   0.00000000000000E+00  -2.43299356479666E-16   4.49034529397856E-14
     -1.26366641907968E-08  -1.26366195306433E-08  -5.92920750380583E-06   0.00000000000000E+00   0.00000000000000E+00
      0.00000000000000E+00   5.32268342249497E-28   5.82169448349438E-09  -1.36231689844836E-12   5.82033216659593E-09
      8.06412604115689E-06   2.20796556958608E+06  -6.59179687500000E-02   4.47304687500000E+00
      7.65118446213843E+02
     -7.65118446213843E+02  -1.26530152924702E+02   0.00000000000000E+00  -2.44709260412161E-16   4.48683693157105E-14
     -1.27611732437639E-08  -1.27611286201039E-08  -6.09471091459834E-06   0.00000000000000E+00   0.00000000000000E+00
      0.00000000000000E+00   2.43246632408020E-25   6.07846187355705E-09  -1.36231689844836E-12   6.07709955665861E-09
      8.22950984988780E-06   2.29061768057343E+06  -6.59179687500000E-02   4.47304687500000E+00
      7.83274659191958E+02
     -7.83274659191958E+02  -1.34018211825319E+02   0.00000000000000E+00  -2.46371376310211E-16   4.48224913364854E-14
     -1.29885299366435E-08  -1.29884853605236E-08  -6.33028507992643E-06   0.00000000000000E+00   0.00000000000000E+00
      0.00000000000000E+00   0.00000000000000E+00   5.95149336221191E-09  -1.36231689844836E-12   5.95013104531346E-09
      8.46491705718581E-06   2.40702540601864E+06  -6.59179687500000E-02   4.47304687500000E+00
      7.97396158174936E+02
     -7.97396158174936E+02  -1.39975614822921E+02   0.00000000000000E+00  -2.48998474176782E-16   4.47879394748224E-14
     -1.31511162983256E-08  -1.31510717593846E-08  -6.51581178965263E-06   0.00000000000000E+00   0.00000000000000E+00
      0.00000000000000E+00   2.12907336899799E-27   6.06258528157764E-09  -1.36231689844836E-12   6.06122296467919E-09
      8.65031444562180E-06   2.49523302281077E+06  -6.59179687500000E-02   4.47304687500000E+00
      8.17166256751104E+02
     -8.17166256751104E+02  -1.48584786556890E+02   0.00000000000000E+00  -2.52625213498512E-16   4.47377057731766E-14
     -1.33735338092717E-08  -1.33734893241911E-08  -6.77995431054896E-06   0.00000000000000E+00   0.00000000000000E+00
      0.00000000000000E+00   6.23818497116410E-25   6.93009288121067E-09  -1.36231689844836E-12   6.92873056431222E-09
      8.91427720232840E-06   2.61993687712156E+06  -6.59179687500000E-02   4.47304687500000E+00
      8.32543000088125E+02
     -8.32543000088125E+02  -1.55461375086481E+02   0.00000000000000E+00  -2.55674977995257E-16   4.46988637089787E-14
     -1.35384179514477E-08  -1.35383735082590E-08  -6.98800860025758E-06   0.00000000000000E+00   0.00000000000000E+00
      0.00000000000000E+00  -2.66134171124749E-27   6.96237675905183E-09  -1.36231689844836E-12   6.96101444215338E-09
      9.12219223412864E-06   2.71764617377765E+06  -6.59179687500000E-02   4.47304687500000E+00
      8.44502689350252E+02
     -8.44502689350252E+02  -1.60924656361728E+02   0.00000000000000E+00  -2.56486399605989E-16   4.46702661834229E-14
     -1.36835793226548E-08  -1.36835349088750E-08  -7.15137990025511E-06   0.00000000000000E+00   0.00000000000000E+00
      0.00000000000000E+00   5.32268342249497E-28   6.95313384060141E-09  -1.36231689844836E-12   6.95177152370296E-09
      9.28545543446039E-06   2.79366957684225E+06  -6.59179687500000E-02   4.47304687500000E+00
      8.61246254317229E+02
     -8.61246254317229E+02  -1.68720207668891E+02   0.00000000000000E+00  -2.57638487576107E-16   4.46310254117487E-14
     -1.38364443955065E-08  -1.38364000221196E-08  -7.38309225586206E-06   0.00000000000000E+00   0.00000000000000E+00
      0.00000000000000E+00  -4.25814673799598E-27   6.92301696277973E-09  -1.36231689844836E-12   6.92165464588128E-09
      9.51701675043628E-06   2.90164134496343E+06  -6.59179687500000E-02   4.47304687500000E+00
      8.74269027069323E+02
     -8.74269027069323E+02  -1.74887564004710E+02   0.00000000000000E+00  -2.59524714564651E-16   4.45994458702936E-14
     -1.40089634690068E-08  -1.40089191290856E-08  -7.56509567771650E-06   0.00000000000000E+00   0.00000000000000E+00
      0.00000000000000E+00   2.89553978183726E-25   7.18553353656754E-09  -1.36231689844836E-12   7.18417121966909E-09
      9.69890295414761E-06   2.98665884764558E+06  -6.59179687500000E-02   4.47304687500000E+00
      8.92500908922255E+02
     -8.92500908922255E+02  -1.83731778805037E+02   0.00000000000000E+00  -2.61821835543500E-16   4.45529812883722E-14
     -1.42007229681087E-08  -1.42006786769492E-08  -7.82331684215358E-06   0.00000000000000E+00   0.00000000000000E+00
      0.00000000000000E+00  -2.66134171124749E-27   7.19685500605704E-09  -1.36231689844836E-12   7.19549268915860E-09
      9.95696043746561E-06   3.10706178220199E+06  -6.59179687500000E-02   4.47304687500000E+00
      9.18025543516358E+02
     -9.18025543516358E+02  -1.96524051570236E+02   0.00000000000000E+00  -2.66578984117425E-16   4.44873545455142E-14